      -----------------------------------------------------------      
     |                   =====================                   |     
     |                           x T B                           |     
     |                   =====================                   |     
     |                         S. Grimme                         |     
     |          Mulliken Center for Theoretical Chemistry        |     
     |                    University of Bonn                     |     
      -----------------------------------------------------------      

   * xtb version 6.6.0 (conda-forge) compiled by 'runner@Mac-1676020848589.local' on 2023-02-10

   xtb is free software: you can redistribute it and/or modify it under
   the terms of the GNU Lesser General Public License as published by
   the Free Software Foundation, either version 3 of the License, or
   (at your option) any later version.
   
   xtb is distributed in the hope that it will be useful,
   but WITHOUT ANY WARRANTY; without even the implied warranty of
   MERCHANTABILITY or FITNESS FOR A PARTICULAR PURPOSE.  See the
   GNU Lesser General Public License for more details.
   
   Cite this work as:
   * C. Bannwarth, E. Caldeweyher, S. Ehlert, A. Hansen, P. Pracht,
     J. Seibert, S. Spicher, S. Grimme, WIREs Comput. Mol. Sci., 2020, 11,
     e01493. DOI: 10.1002/wcms.1493
   
   for GFN2-xTB:
   * C. Bannwarth, S. Ehlert and S. Grimme., J. Chem. Theory Comput., 2019,
     15, 1652-1671. DOI: 10.1021/acs.jctc.8b01176
   for GFN1-xTB:
   * S. Grimme, C. Bannwarth, P. Shushkov, J. Chem. Theory Comput., 2017,
     13, 1989-2009. DOI: 10.1021/acs.jctc.7b00118
   for GFN0-xTB:
   * P. Pracht, E. Caldeweyher, S. Ehlert, S. Grimme, ChemRxiv, 2019, preprint.
     DOI: 10.26434/chemrxiv.8326202.v1
   for GFN-FF:
   * S. Spicher and S. Grimme, Angew. Chem. Int. Ed., 2020, 59, 15665-15673.
     DOI: 10.1002/anie.202004239
   
   for ALPB and GBSA implicit solvation:
   * S. Ehlert, M. Stahn, S. Spicher, S. Grimme, J. Chem. Theory Comput.,
     2021, 17, 4250-4261. DOI: 10.1021/acs.jctc.1c00471
   
   for DFT-D4:
   * E. Caldeweyher, C. Bannwarth and S. Grimme, J. Chem. Phys., 2017,
     147, 034112. DOI: 10.1063/1.4993215
   * E. Caldeweyher, S. Ehlert, A. Hansen, H. Neugebauer, S. Spicher,
     C. Bannwarth and S. Grimme, J. Chem. Phys., 2019, 150, 154122.
     DOI: 10.1063/1.5090222
   * E. Caldeweyher, J.-M. Mewes, S. Ehlert and S. Grimme, Phys. Chem. Chem. Phys.
     2020, 22, 8499-8512. DOI: 10.1039/D0CP00502A
   
   for sTDA-xTB:
   * S. Grimme and C. Bannwarth, J. Chem. Phys., 2016, 145, 054103.
     DOI: 10.1063/1.4959605
   
   in the mass-spec context:
   * V. Asgeirsson, C. Bauer and S. Grimme, Chem. Sci., 2017, 8, 4879.
     DOI: 10.1039/c7sc00601b
   * J. Koopman and S. Grimme, ACS Omega 2019, 4, 12, 15120-15133.
     DOI: 10.1021/acsomega.9b02011
   
   for metadynamics refer to:
   * S. Grimme, J. Chem. Theory Comput., 2019, 155, 2847-2862
     DOI: 10.1021/acs.jctc.9b00143
   
   for SPH calculations refer to:
   * S. Spicher and S. Grimme, J. Chem. Theory Comput., 2021, 17, 1701-1714
     DOI: 10.1021/acs.jctc.0c01306
   
   with help from (in alphabetical order)
   P. Atkinson, C. Bannwarth, F. Bohle, G. Brandenburg, E. Caldeweyher
   M. Checinski, S. Dohm, S. Ehlert, S. Ehrlich, I. Gerasimov, C. Hölzer
   A. Katbashev, J. Koopman, C. Lavigne, S. Lehtola, F. März, M. Müller,
   F. Musil, H. Neugebauer, J. Pisarek, C. Plett, P. Pracht, F. Pultar,
   J. Seibert, P. Shushkov, S. Spicher, M. Stahn, M. Steiner, T. Strunk,
   J. Stückrath, T. Rose, and J. Unsleber
   
 * started run on 2023/07/12 at 17:08:40.910     

           -------------------------------------------------
          |                Calculation Setup                |
           -------------------------------------------------

          program call               : xtb --verbose --grad -P 8 --chrg 0 --uhf 0 --namespace molecule -- molecule.xyz
          calculation namespace      : molecule
          coordinate file            : molecule.xyz
          xtbhome directory          : /Users/ishaniganguly
          path for xtb               : /Users/ishaniganguly
          xcontrol input file        : molecule.xyz
          omp threads                :                     8

$$$$$$$$$$$$$$$$$$$$$$$$$$$$$$$$$$$$$$$$$$$$$$$$$$$$$$$$$$$$$$$$$$$$$$$$
 CONSTRAINTS & SCANS: DEBUG SECTION
$$$$$$$$$$$$$$$$$$$$$$$$$$$$$$$$$$$$$$$$$$$$$$$$$$$$$$$$$$$$$$$$$$$$$$$$
   ID    Z sym.   atoms
    1    6 C      1, 3, 4, 6-10, 12, 13
    2    8 O      2, 5, 11
    3    1 H      14-25
$$$$$$$$$$$$$$$$$$$$$$$$$$$$$$$$$$$$$$$$$$$$$$$$$$$$$$$$$$$$$$$$$$$$$$$$

           -------------------------------------------------
          |                 G F N 2 - x T B                 |
           -------------------------------------------------

        Reference                      10.1021/acs.jctc.8b01176
      * Hamiltonian:
        H0-scaling (s, p, d)           1.850000    2.230000    2.230000
        zeta-weighting                 0.500000
      * Dispersion:
        s8                             2.700000
        a1                             0.520000
        a2                             5.000000
        s9                             5.000000
      * Repulsion:
        kExp                           1.500000    1.000000
        rExp                           1.000000
      * Coulomb:
        alpha                          2.000000
        third order                    shell-resolved
        anisotropic                    true
        a3                             3.000000
        a5                             4.000000
        cn-shift                       1.200000
        cn-exp                         4.000000
        max-rad                        5.000000


          ...................................................
          :                      SETUP                      :
          :.................................................:
          :  # basis functions                  64          :
          :  # atomic orbitals                  64          :
          :  # shells                           38          :
          :  # electrons                        70          :
          :  max. iterations                   250          :
          :  Hamiltonian                  GFN2-xTB          :
          :  restarted?                      false          :
          :  GBSA solvation                  false          :
          :  PC potential                    false          :
          :  electronic temp.          300.0000000     K    :
          :  accuracy                    1.0000000          :
          :  -> integral cutoff          0.2500000E+02      :
          :  -> integral neglect         0.1000000E-07      :
          :  -> SCF convergence          0.1000000E-05 Eh   :
          :  -> wf. convergence          0.1000000E-03 e    :
          :  Broyden damping             0.4000000          :
          ...................................................

 iter      E             dE          RMSdq      gap      omega  full diag
   1    -39.4907928 -0.394908E+02  0.462E+00    1.07       0.0  T
   2    -38.7399407  0.750852E+00  0.525E+00    0.52       1.0  T
   3    -39.2115504 -0.471610E+00  0.349E+00    0.89       1.0  T
   4    -39.4415386 -0.229988E+00  0.300E+00    1.20       1.0  T
   5    -39.5587921 -0.117253E+00  0.167E+00    1.00       1.0  T
   6    -39.5828743 -0.240822E-01  0.115E+00    0.90       1.0  T
   7    -39.5864009 -0.352662E-02  0.101E+00    0.86       1.0  T
   8    -39.5991291 -0.127282E-01  0.535E-01    0.52       1.0  T
   9    -39.6034935 -0.436439E-02  0.346E-01    0.31       1.0  T
  10    -39.6053753 -0.188181E-02  0.205E-01    0.23       1.0  T
  11    -39.6063002 -0.924896E-03  0.506E-02    0.17       1.0  T
  12    -39.6052134  0.108682E-02  0.185E-01    0.23       1.0  T
  13    -39.6042729  0.940445E-03  0.254E-01    0.14       1.0  T
  14    -39.6063343 -0.206140E-02  0.628E-03    0.17       3.2  T
  15    -39.6063339  0.476358E-06  0.532E-03    0.17       3.8  T
  16    -39.6063318  0.207027E-05  0.967E-03    0.17       2.1  T
  17    -39.6063323 -0.486492E-06  0.875E-03    0.18       2.3  T
  18    -39.6063342 -0.187502E-05  0.414E-03    0.18       4.8  T
  19    -39.6063346 -0.402359E-06  0.203E-03    0.17       9.8  T
  20    -39.6063347 -0.123330E-06  0.406E-04    0.17      49.3  T
  21    -39.6063347 -0.409526E-08  0.179E-04    0.17     111.5  T

   *** convergence criteria satisfied after 21 iterations ***

         #    Occupation            Energy/Eh            Energy/eV
      -------------------------------------------------------------
         1        2.0000           -0.7298427             -19.8600
       ...           ...                  ...                  ...
        29        2.0000           -0.4555219             -12.3954
        30        2.0000           -0.4379733             -11.9179
        31        2.0000           -0.4217112             -11.4753
        32        2.0000           -0.4073230             -11.0838
        33        2.0000           -0.3998871             -10.8815
        34        2.0000           -0.3491299              -9.5003
        35        1.9340           -0.3199117              -8.7052 (HOMO)
        36        0.0660           -0.3134944              -8.5306 (LUMO)
        37                         -0.2286955              -6.2231
        38                         -0.1845317              -5.0214
        39                         -0.1125580              -3.0629
        40                         -0.0462120              -1.2575
       ...                                ...                  ...
        64                          0.4590275              12.4908
      -------------------------------------------------------------
                  HL-Gap            0.0064173 Eh            0.1746 eV
             Fermi-level           -0.3167031 Eh           -8.6179 eV

 SCC (total)                   0 d,  0 h,  0 min,  0.092 sec
 SCC setup                      ...        0 min,  0.000 sec (  0.227%)
 Dispersion                     ...        0 min,  0.000 sec (  0.352%)
 classical contributions        ...        0 min,  0.000 sec (  0.072%)
 integral evaluation            ...        0 min,  0.002 sec (  1.875%)
 iterations                     ...        0 min,  0.085 sec ( 92.013%)
 molecular gradient             ...        0 min,  0.005 sec (  5.295%)
 printout                       ...        0 min,  0.000 sec (  0.143%)

         :::::::::::::::::::::::::::::::::::::::::::::::::::::
         ::                     SUMMARY                     ::
         :::::::::::::::::::::::::::::::::::::::::::::::::::::
         :: total energy             -39.223852474775 Eh    ::
         :: gradient norm              0.200063381766 Eh/a0 ::
         :: HOMO-LUMO gap              0.174623072188 eV    ::
         ::.................................................::
         :: HOMO orbital eigv.        -8.705240793094 eV    ::
         :: LUMO orbital eigv.        -8.530617720905 eV    ::
         ::.................................................::
         :: SCC energy               -39.606334687017 Eh    ::
         :: -> isotropic ES            0.064453077411 Eh    ::
         :: -> anisotropic ES          0.004571328232 Eh    ::
         :: -> anisotropic XC          0.002983400017 Eh    ::
         :: -> dispersion             -0.022465191782 Eh    ::
         :: repulsion energy           0.382306262620 Eh    ::
         :: add. restraining           0.000000000000 Eh    ::
         :: total charge               0.000000000000 e     ::
         ::.................................................::
         :: atomisation energy         6.975886250799 Eh    ::
         :::::::::::::::::::::::::::::::::::::::::::::::::::::

           -------------------------------------------------
          |                Property Printout                |
           -------------------------------------------------

    * Orbital Energies and Occupations

         #    Occupation            Energy/Eh            Energy/eV
      -------------------------------------------------------------
         1        2.0000           -0.7298427             -19.8600
       ...           ...                  ...                  ...
        23        2.0000           -0.5103202             -13.8865
        24        2.0000           -0.5078388             -13.8190
        25        2.0000           -0.4944335             -13.4542
        26        2.0000           -0.4876052             -13.2684
        27        2.0000           -0.4756807             -12.9439
        28        2.0000           -0.4721410             -12.8476
        29        2.0000           -0.4555219             -12.3954
        30        2.0000           -0.4379733             -11.9179
        31        2.0000           -0.4217112             -11.4753
        32        2.0000           -0.4073230             -11.0838
        33        2.0000           -0.3998871             -10.8815
        34        2.0000           -0.3491299              -9.5003
        35        1.9340           -0.3199117              -8.7052 (HOMO)
        36        0.0660           -0.3134944              -8.5306 (LUMO)
        37                         -0.2286955              -6.2231
        38                         -0.1845317              -5.0214
        39                         -0.1125580              -3.0629
        40                         -0.0462120              -1.2575
        41                         -0.0308539              -0.8396
        42                         -0.0104362              -0.2840
        43                          0.0082066               0.2233
        44                          0.0254583               0.6928
        45                          0.0495810               1.3492
        46                          0.0609543               1.6587
       ...                                ...                  ...
        64                          0.4590275              12.4908
      -------------------------------------------------------------
                  HL-Gap            0.0064173 Eh            0.1746 eV
             Fermi-level           -0.3167031 Eh           -8.6179 eV

     #   Z          covCN         q      C6AA      α(0)
     1   6 C        3.600     0.051    20.286     6.515
     2   8 O        1.655    -0.357    20.039     6.043
     3   6 C        3.707     0.083    19.338     6.286
     4   6 C        3.728     0.091    19.166     6.250
     5   8 O        1.699    -0.337    19.652     5.985
     6   6 C        3.781     0.125    18.564     6.138
     7   6 C        3.857     0.023    20.144     6.383
     8   6 C        3.879    -0.143    23.198     6.848
     9   6 C        3.797    -0.008    20.718     6.481
    10   6 C        3.690     0.058    19.784     6.365
    11   8 O        1.697    -0.304    19.069     5.896
    12   6 C        3.725     0.088    19.221     6.260
    13   6 C        3.904     0.010    20.357     6.413
    14   1 H        0.924     0.051     2.307     2.375
    15   1 H        0.924     0.040     2.444     2.445
    16   1 H        0.925     0.047     2.356     2.401
    17   1 H        0.925     0.038     2.472     2.459
    18   1 H        0.925     0.068     2.111     2.272
    19   1 H        0.924     0.089     1.892     2.151
    20   1 H        0.923     0.049     2.333     2.389
    21   1 H        0.922     0.075     2.028     2.227
    22   1 H        0.924     0.040     2.445     2.445
    23   1 H        0.925     0.063     2.160     2.298
    24   1 H        0.923     0.032     2.560     2.502
    25   1 H        0.925     0.027     2.630     2.536

 Mol. C6AA /au·bohr⁶  :       5797.324619
 Mol. C8AA /au·bohr⁸  :     131983.019858
 Mol. α(0) /au        :        110.363701


Wiberg/Mayer (AO) data.
largest (>0.10) Wiberg bond orders for each atom

 ---------------------------------------------------------------------------
     #   Z sym  total        # sym  WBO       # sym  WBO       # sym  WBO
 ---------------------------------------------------------------------------
     1   6 C    3.911 --    14 H    0.971    15 H    0.969     2 O    0.956
                             9 C    0.892
     2   8 O    2.065 --     1 C    0.956     3 C    0.929
     3   6 C    3.864 --    16 H    0.959     2 O    0.929     4 C    0.917
                             6 C    0.900
     4   6 C    3.713 --    17 H    0.952     3 C    0.917     5 O    0.865
                             6 C    0.816
     5   8 O    1.897 --     6 C    0.881     4 C    0.865
     6   6 C    3.748 --     7 C    0.981     3 C    0.900     5 O    0.881
                             4 C    0.816
     7   6 C    3.951 --    13 C    1.079     6 C    0.981    18 H    0.950
                             8 C    0.767
     8   6 C    3.437 --     9 C    0.929    19 H    0.854     7 C    0.767
                            13 C    0.668
     9   6 C    3.958 --    20 H    0.968    10 C    0.939     8 C    0.929
                             1 C    0.892
    10   6 C    3.933 --    11 O    0.981    21 H    0.972    22 H    0.970
                             9 C    0.939
    11   8 O    2.076 --    12 C    0.992    10 C    0.981
    12   6 C    3.963 --    13 C    1.005    11 O    0.992    24 H    0.962
                            23 H    0.949
    13   6 C    3.937 --     7 C    1.079    12 C    1.005    25 H    0.942
                             8 C    0.668
    14   1 H    0.996 --     1 C    0.971
    15   1 H    0.998 --     1 C    0.969
    16   1 H    0.998 --     3 C    0.959
    17   1 H    0.998 --     4 C    0.952
    18   1 H    0.991 --     7 C    0.950
    19   1 H    0.984 --     8 C    0.854
    20   1 H    0.997 --     9 C    0.968
    21   1 H    0.994 --    10 C    0.972
    22   1 H    0.995 --    10 C    0.970
    23   1 H    0.993 --    12 C    0.949
    24   1 H    0.996 --    12 C    0.962
    25   1 H    0.998 --    13 C    0.942
 ---------------------------------------------------------------------------

Topologies differ in total number of bonds
Writing topology from bond orders to xtbtopo.mol

molecular dipole:
                 x           y           z       tot (Debye)
 q only:       -1.319       0.135       0.309
   full:       -1.494      -0.254       0.463       4.027
molecular quadrupole (traceless):
                xx          xy          yy          xz          yz          zz
 q only:      -12.087      -5.536       5.320       8.378       5.646       6.767
  q+dip:       -8.106      -8.417       0.822      11.511       6.832       7.283
   full:       -8.530      -8.725       0.207      11.235       6.852       8.323


           -------------------------------------------------
          | TOTAL ENERGY              -39.223852474775 Eh   |
          | GRADIENT NORM               0.200063381766 Eh/α |
          | HOMO-LUMO GAP               0.174623072188 eV   |
           -------------------------------------------------
########################################################################
[WARNING] Runtime exception occurred
-2- restart_readRestart: Dimension missmatch in restart file.
-1- restart_readRestart: Number of electron missmatch in restart file.
########################################################################

------------------------------------------------------------------------
 unit  open   action     filename
   10 false : read       molecule.xyz
   10 false : read       molecule.xyz
   10 false : read       molecule.xyz
   10 false : read       molecule.xtbrestart
   10 false : replaced   molecule.energy
   11 false : replaced   molecule.gradient
   10 false : replaced   molecule.molecule.engrad
   10 false : replaced   molecule.charges
   10 false : replaced   molecule.wbo
   10 false : replaced   molecule.xtbtopo.mol
   10 false : replaced   molecule.xtbrestart

------------------------------------------------------------------------
 * finished run on 2023/07/12 at 17:08:41.016     
------------------------------------------------------------------------
 total:
 * wall-time:     0 d,  0 h,  0 min,  0.106 sec
 *  cpu-time:     0 d,  0 h,  0 min,  0.368 sec
 * ratio c/w:     3.481 speedup
 SCF:
 * wall-time:     0 d,  0 h,  0 min,  0.092 sec
 *  cpu-time:     0 d,  0 h,  0 min,  0.325 sec
 * ratio c/w:     3.522 speedup

