      -----------------------------------------------------------      
     |                   =====================                   |     
     |                           x T B                           |     
     |                   =====================                   |     
     |                         S. Grimme                         |     
     |          Mulliken Center for Theoretical Chemistry        |     
     |                    University of Bonn                     |     
      -----------------------------------------------------------      

   * xtb version 6.6.0 (conda-forge) compiled by 'runner@Mac-1676020848589.local' on 2023-02-10

   xtb is free software: you can redistribute it and/or modify it under
   the terms of the GNU Lesser General Public License as published by
   the Free Software Foundation, either version 3 of the License, or
   (at your option) any later version.
   
   xtb is distributed in the hope that it will be useful,
   but WITHOUT ANY WARRANTY; without even the implied warranty of
   MERCHANTABILITY or FITNESS FOR A PARTICULAR PURPOSE.  See the
   GNU Lesser General Public License for more details.
   
   Cite this work as:
   * C. Bannwarth, E. Caldeweyher, S. Ehlert, A. Hansen, P. Pracht,
     J. Seibert, S. Spicher, S. Grimme, WIREs Comput. Mol. Sci., 2020, 11,
     e01493. DOI: 10.1002/wcms.1493
   
   for GFN2-xTB:
   * C. Bannwarth, S. Ehlert and S. Grimme., J. Chem. Theory Comput., 2019,
     15, 1652-1671. DOI: 10.1021/acs.jctc.8b01176
   for GFN1-xTB:
   * S. Grimme, C. Bannwarth, P. Shushkov, J. Chem. Theory Comput., 2017,
     13, 1989-2009. DOI: 10.1021/acs.jctc.7b00118
   for GFN0-xTB:
   * P. Pracht, E. Caldeweyher, S. Ehlert, S. Grimme, ChemRxiv, 2019, preprint.
     DOI: 10.26434/chemrxiv.8326202.v1
   for GFN-FF:
   * S. Spicher and S. Grimme, Angew. Chem. Int. Ed., 2020, 59, 15665-15673.
     DOI: 10.1002/anie.202004239
   
   for ALPB and GBSA implicit solvation:
   * S. Ehlert, M. Stahn, S. Spicher, S. Grimme, J. Chem. Theory Comput.,
     2021, 17, 4250-4261. DOI: 10.1021/acs.jctc.1c00471
   
   for DFT-D4:
   * E. Caldeweyher, C. Bannwarth and S. Grimme, J. Chem. Phys., 2017,
     147, 034112. DOI: 10.1063/1.4993215
   * E. Caldeweyher, S. Ehlert, A. Hansen, H. Neugebauer, S. Spicher,
     C. Bannwarth and S. Grimme, J. Chem. Phys., 2019, 150, 154122.
     DOI: 10.1063/1.5090222
   * E. Caldeweyher, J.-M. Mewes, S. Ehlert and S. Grimme, Phys. Chem. Chem. Phys.
     2020, 22, 8499-8512. DOI: 10.1039/D0CP00502A
   
   for sTDA-xTB:
   * S. Grimme and C. Bannwarth, J. Chem. Phys., 2016, 145, 054103.
     DOI: 10.1063/1.4959605
   
   in the mass-spec context:
   * V. Asgeirsson, C. Bauer and S. Grimme, Chem. Sci., 2017, 8, 4879.
     DOI: 10.1039/c7sc00601b
   * J. Koopman and S. Grimme, ACS Omega 2019, 4, 12, 15120-15133.
     DOI: 10.1021/acsomega.9b02011
   
   for metadynamics refer to:
   * S. Grimme, J. Chem. Theory Comput., 2019, 155, 2847-2862
     DOI: 10.1021/acs.jctc.9b00143
   
   for SPH calculations refer to:
   * S. Spicher and S. Grimme, J. Chem. Theory Comput., 2021, 17, 1701-1714
     DOI: 10.1021/acs.jctc.0c01306
   
   with help from (in alphabetical order)
   P. Atkinson, C. Bannwarth, F. Bohle, G. Brandenburg, E. Caldeweyher
   M. Checinski, S. Dohm, S. Ehlert, S. Ehrlich, I. Gerasimov, C. Hölzer
   A. Katbashev, J. Koopman, C. Lavigne, S. Lehtola, F. März, M. Müller,
   F. Musil, H. Neugebauer, J. Pisarek, C. Plett, P. Pracht, F. Pultar,
   J. Seibert, P. Shushkov, S. Spicher, M. Stahn, M. Steiner, T. Strunk,
   J. Stückrath, T. Rose, and J. Unsleber
   
 * started run on 2023/08/04 at 03:48:45.691     

           -------------------------------------------------
          |                Calculation Setup                |
           -------------------------------------------------

          program call               : xtb --verbose --grad -P 8 --chrg 0 --uhf 0 --namespace molecule -- molecule.xyz
          calculation namespace      : molecule
          coordinate file            : molecule.xyz
          xtbhome directory          : /Users/ishaniganguly
          path for xtb               : /Users/ishaniganguly
          xcontrol input file        : molecule.xyz
          omp threads                :                     8

$$$$$$$$$$$$$$$$$$$$$$$$$$$$$$$$$$$$$$$$$$$$$$$$$$$$$$$$$$$$$$$$$$$$$$$$
 CONSTRAINTS & SCANS: DEBUG SECTION
$$$$$$$$$$$$$$$$$$$$$$$$$$$$$$$$$$$$$$$$$$$$$$$$$$$$$$$$$$$$$$$$$$$$$$$$
   ID    Z sym.   atoms
    1    8 O      1, 4, 6
    2    6 C      2, 3, 5, 7, 8
    3    7 N      9
    4    1 H      10-16
$$$$$$$$$$$$$$$$$$$$$$$$$$$$$$$$$$$$$$$$$$$$$$$$$$$$$$$$$$$$$$$$$$$$$$$$

           -------------------------------------------------
          |                 G F N 2 - x T B                 |
           -------------------------------------------------

        Reference                      10.1021/acs.jctc.8b01176
      * Hamiltonian:
        H0-scaling (s, p, d)           1.850000    2.230000    2.230000
        zeta-weighting                 0.500000
      * Dispersion:
        s8                             2.700000
        a1                             0.520000
        a2                             5.000000
        s9                             5.000000
      * Repulsion:
        kExp                           1.500000    1.000000
        rExp                           1.000000
      * Coulomb:
        alpha                          2.000000
        third order                    shell-resolved
        anisotropic                    true
        a3                             3.000000
        a5                             4.000000
        cn-shift                       1.200000
        cn-exp                         4.000000
        max-rad                        5.000000


          ...................................................
          :                      SETUP                      :
          :.................................................:
          :  # basis functions                  43          :
          :  # atomic orbitals                  43          :
          :  # shells                           25          :
          :  # electrons                        50          :
          :  max. iterations                   250          :
          :  Hamiltonian                  GFN2-xTB          :
          :  restarted?                      false          :
          :  GBSA solvation                  false          :
          :  PC potential                    false          :
          :  electronic temp.          300.0000000     K    :
          :  accuracy                    1.0000000          :
          :  -> integral cutoff          0.2500000E+02      :
          :  -> integral neglect         0.1000000E-07      :
          :  -> SCF convergence          0.1000000E-05 Eh   :
          :  -> wf. convergence          0.1000000E-03 e    :
          :  Broyden damping             0.4000000          :
          ...................................................

 iter      E             dE          RMSdq      gap      omega  full diag
   1    -29.4757708 -0.294758E+02  0.517E+00    2.94       0.0  T
   2    -29.5186144 -0.428436E-01  0.263E+00    2.12       1.0  T
   3    -29.5199663 -0.135195E-02  0.189E+00    2.36       1.0  T
   4    -29.5345639 -0.145976E-01  0.187E-01    1.86       1.0  T
   5    -29.5347229 -0.158981E-03  0.854E-02    1.90       1.0  T
   6    -29.5347546 -0.317549E-04  0.364E-02    1.90       1.0  T
   7    -29.5347565 -0.182654E-05  0.145E-02    1.90       1.7  T
   8    -29.5347577 -0.120051E-05  0.508E-03    1.90       4.9  T
   9    -29.5347577 -0.626163E-07  0.237E-03    1.90      10.6  T
  10    -29.5347577 -0.226772E-07  0.764E-04    1.90      32.7  T
  11    -29.5347577 -0.419178E-08  0.243E-04    1.90     102.8  T

   *** convergence criteria satisfied after 11 iterations ***

         #    Occupation            Energy/Eh            Energy/eV
      -------------------------------------------------------------
         1        2.0000           -0.7492661             -20.3886
       ...           ...                  ...                  ...
        19        2.0000           -0.4994011             -13.5894
        20        2.0000           -0.4839950             -13.1702
        21        2.0000           -0.4795103             -13.0481
        22        2.0000           -0.4599375             -12.5155
        23        2.0000           -0.4357194             -11.8565
        24        2.0000           -0.4226605             -11.5012
        25        2.0000           -0.3919151             -10.6646 (HOMO)
        26                         -0.3219608              -8.7610 (LUMO)
        27                         -0.2954289              -8.0390
        28                         -0.1159560              -3.1553
        29                         -0.0074983              -0.2040
        30                          0.0072982               0.1986
       ...                                ...                  ...
        43                          0.4959964              13.4967
      -------------------------------------------------------------
                  HL-Gap            0.0699543 Eh            1.9036 eV
             Fermi-level           -0.3569380 Eh           -9.7128 eV

 SCC (total)                   0 d,  0 h,  0 min,  0.041 sec
 SCC setup                      ...        0 min,  0.000 sec (  1.119%)
 Dispersion                     ...        0 min,  0.000 sec (  0.292%)
 classical contributions        ...        0 min,  0.000 sec (  0.164%)
 integral evaluation            ...        0 min,  0.000 sec (  0.828%)
 iterations                     ...        0 min,  0.039 sec ( 94.705%)
 molecular gradient             ...        0 min,  0.001 sec (  2.540%)
 printout                       ...        0 min,  0.000 sec (  0.306%)

         :::::::::::::::::::::::::::::::::::::::::::::::::::::
         ::                     SUMMARY                     ::
         :::::::::::::::::::::::::::::::::::::::::::::::::::::
         :: total energy             -29.275317289274 Eh    ::
         :: gradient norm              0.119442880862 Eh/a0 ::
         :: HOMO-LUMO gap              1.903554146734 eV    ::
         ::.................................................::
         :: HOMO orbital eigv.       -10.664553384052 eV    ::
         :: LUMO orbital eigv.        -8.760999237319 eV    ::
         ::.................................................::
         :: SCC energy               -29.534757747183 Eh    ::
         :: -> isotropic ES            0.066348349945 Eh    ::
         :: -> anisotropic ES          0.007474826039 Eh    ::
         :: -> anisotropic XC          0.010426037851 Eh    ::
         :: -> dispersion             -0.011638281847 Eh    ::
         :: repulsion energy           0.259394962574 Eh    ::
         :: add. restraining           0.000000000000 Eh    ::
         :: total charge               0.000000000000 e     ::
         ::.................................................::
         :: atomisation energy         4.578485787858 Eh    ::
         :::::::::::::::::::::::::::::::::::::::::::::::::::::

           -------------------------------------------------
          |                Property Printout                |
           -------------------------------------------------

    * Orbital Energies and Occupations

         #    Occupation            Energy/Eh            Energy/eV
      -------------------------------------------------------------
         1        2.0000           -0.7492661             -20.3886
       ...           ...                  ...                  ...
        13        2.0000           -0.5665308             -15.4161
        14        2.0000           -0.5610378             -15.2666
        15        2.0000           -0.5510826             -14.9957
        16        2.0000           -0.5435409             -14.7905
        17        2.0000           -0.5295202             -14.4090
        18        2.0000           -0.5222217             -14.2104
        19        2.0000           -0.4994011             -13.5894
        20        2.0000           -0.4839950             -13.1702
        21        2.0000           -0.4795103             -13.0481
        22        2.0000           -0.4599375             -12.5155
        23        2.0000           -0.4357194             -11.8565
        24        2.0000           -0.4226605             -11.5012
        25        2.0000           -0.3919151             -10.6646 (HOMO)
        26                         -0.3219608              -8.7610 (LUMO)
        27                         -0.2954289              -8.0390
        28                         -0.1159560              -3.1553
        29                         -0.0074983              -0.2040
        30                          0.0072982               0.1986
        31                          0.0192687               0.5243
        32                          0.0501583               1.3649
        33                          0.0800617               2.1786
        34                          0.1001211               2.7244
        35                          0.1326227               3.6088
        36                          0.1630751               4.4375
       ...                                ...                  ...
        43                          0.4959964              13.4967
      -------------------------------------------------------------
                  HL-Gap            0.0699543 Eh            1.9036 eV
             Fermi-level           -0.3569380 Eh           -9.7128 eV

     #   Z          covCN         q      C6AA      α(0)
     1   8 O        0.856    -0.269    19.230     5.879
     2   6 C        2.759     0.213    23.498     7.938
     3   6 C        3.772     0.112    18.777     6.175
     4   8 O        1.653    -0.410    21.052     6.194
     5   6 C        2.763     0.184    24.051     8.031
     6   8 O        0.856    -0.286    19.529     5.925
     7   6 C        3.789     0.034    20.019     6.372
     8   6 C        3.734    -0.006    20.772     6.505
     9   7 N        2.673    -0.247    26.438     7.637
    10   1 H        0.923     0.074     2.040     2.234
    11   1 H        0.804     0.300     0.720     1.333
    12   1 H        0.923     0.047     2.354     2.399
    13   1 H        0.925     0.016     2.787     2.611
    14   1 H        0.925     0.031     2.575     2.509
    15   1 H        0.925     0.061     2.192     2.315
    16   1 H        0.860     0.146     1.431     1.874

 Mol. C6AA /au·bohr⁶  :       2628.389079
 Mol. C8AA /au·bohr⁸  :      58533.706526
 Mol. α(0) /au        :         75.930346


Wiberg/Mayer (AO) data.
largest (>0.10) Wiberg bond orders for each atom

 ---------------------------------------------------------------------------
     #   Z sym  total        # sym  WBO       # sym  WBO       # sym  WBO
 ---------------------------------------------------------------------------
     1   8 O    2.127 --     2 C    1.969
     2   6 C    3.911 --     1 O    1.969     3 C    0.934    10 H    0.934
     3   6 C    3.956 --     7 C    0.977     4 O    0.961     5 C    0.941
                             2 C    0.934
     4   8 O    1.981 --     3 C    0.961    11 H    0.892
     5   6 C    3.915 --     6 O    1.947     3 C    0.941    12 H    0.934
     6   8 O    2.110 --     5 C    1.947
     7   6 C    3.939 --     9 N    0.980     3 C    0.977     8 C    0.966
                            13 H    0.965
     8   6 C    3.932 --     9 N    0.986    14 H    0.979    15 H    0.974
                             7 C    0.966
     9   7 N    2.980 --     8 C    0.986     7 C    0.980    16 H    0.960
    10   1 H    0.994 --     2 C    0.934
    11   1 H    0.910 --     4 O    0.892
    12   1 H    0.998 --     5 C    0.934
    13   1 H    1.000 --     7 C    0.965
    14   1 H    0.999 --     8 C    0.979
    15   1 H    0.996 --     8 C    0.974
    16   1 H    0.978 --     9 N    0.960
 ---------------------------------------------------------------------------

Topologies differ in total number of bonds
Writing topology from bond orders to xtbtopo.mol

molecular dipole:
                 x           y           z       tot (Debye)
 q only:        0.890       0.151       0.942
   full:        1.288       0.237       1.606       5.268
molecular quadrupole (traceless):
                xx          xy          yy          xz          yz          zz
 q only:       12.971       6.647      -3.066      10.960      -1.179      -9.905
  q+dip:       21.078       8.070      -5.727      20.149      -1.168     -15.351
   full:       19.958       8.941      -4.304      19.454      -1.767     -15.654


           -------------------------------------------------
          | TOTAL ENERGY              -29.275317289274 Eh   |
          | GRADIENT NORM               0.119442880862 Eh/α |
          | HOMO-LUMO GAP               1.903554146734 eV   |
           -------------------------------------------------
########################################################################
[WARNING] Runtime exception occurred
-1- restart_readRestart: Dimension missmatch in restart file.
########################################################################

------------------------------------------------------------------------
 unit  open   action     filename
   10 false : read       molecule.xyz
   10 false : read       molecule.xyz
   10 false : read       molecule.xyz
   10 false : read       molecule.xtbrestart
   10 false : replaced   molecule.energy
   11 false : replaced   molecule.gradient
   10 false : replaced   molecule.molecule.engrad
   10 false : replaced   molecule.charges
   10 false : replaced   molecule.wbo
   10 false : replaced   molecule.xtbtopo.mol
   10 false : replaced   molecule.xtbrestart

------------------------------------------------------------------------
 * finished run on 2023/08/04 at 03:48:45.744     
------------------------------------------------------------------------
 total:
 * wall-time:     0 d,  0 h,  0 min,  0.053 sec
 *  cpu-time:     0 d,  0 h,  0 min,  0.222 sec
 * ratio c/w:     4.162 speedup
 SCF:
 * wall-time:     0 d,  0 h,  0 min,  0.042 sec
 *  cpu-time:     0 d,  0 h,  0 min,  0.163 sec
 * ratio c/w:     3.917 speedup

