      -----------------------------------------------------------      
     |                   =====================                   |     
     |                           x T B                           |     
     |                   =====================                   |     
     |                         S. Grimme                         |     
     |          Mulliken Center for Theoretical Chemistry        |     
     |                    University of Bonn                     |     
      -----------------------------------------------------------      

   * xtb version 6.6.0 (conda-forge) compiled by 'runner@Mac-1676020848589.local' on 2023-02-10

   xtb is free software: you can redistribute it and/or modify it under
   the terms of the GNU Lesser General Public License as published by
   the Free Software Foundation, either version 3 of the License, or
   (at your option) any later version.
   
   xtb is distributed in the hope that it will be useful,
   but WITHOUT ANY WARRANTY; without even the implied warranty of
   MERCHANTABILITY or FITNESS FOR A PARTICULAR PURPOSE.  See the
   GNU Lesser General Public License for more details.
   
   Cite this work as:
   * C. Bannwarth, E. Caldeweyher, S. Ehlert, A. Hansen, P. Pracht,
     J. Seibert, S. Spicher, S. Grimme, WIREs Comput. Mol. Sci., 2020, 11,
     e01493. DOI: 10.1002/wcms.1493
   
   for GFN2-xTB:
   * C. Bannwarth, S. Ehlert and S. Grimme., J. Chem. Theory Comput., 2019,
     15, 1652-1671. DOI: 10.1021/acs.jctc.8b01176
   for GFN1-xTB:
   * S. Grimme, C. Bannwarth, P. Shushkov, J. Chem. Theory Comput., 2017,
     13, 1989-2009. DOI: 10.1021/acs.jctc.7b00118
   for GFN0-xTB:
   * P. Pracht, E. Caldeweyher, S. Ehlert, S. Grimme, ChemRxiv, 2019, preprint.
     DOI: 10.26434/chemrxiv.8326202.v1
   for GFN-FF:
   * S. Spicher and S. Grimme, Angew. Chem. Int. Ed., 2020, 59, 15665-15673.
     DOI: 10.1002/anie.202004239
   
   for ALPB and GBSA implicit solvation:
   * S. Ehlert, M. Stahn, S. Spicher, S. Grimme, J. Chem. Theory Comput.,
     2021, 17, 4250-4261. DOI: 10.1021/acs.jctc.1c00471
   
   for DFT-D4:
   * E. Caldeweyher, C. Bannwarth and S. Grimme, J. Chem. Phys., 2017,
     147, 034112. DOI: 10.1063/1.4993215
   * E. Caldeweyher, S. Ehlert, A. Hansen, H. Neugebauer, S. Spicher,
     C. Bannwarth and S. Grimme, J. Chem. Phys., 2019, 150, 154122.
     DOI: 10.1063/1.5090222
   * E. Caldeweyher, J.-M. Mewes, S. Ehlert and S. Grimme, Phys. Chem. Chem. Phys.
     2020, 22, 8499-8512. DOI: 10.1039/D0CP00502A
   
   for sTDA-xTB:
   * S. Grimme and C. Bannwarth, J. Chem. Phys., 2016, 145, 054103.
     DOI: 10.1063/1.4959605
   
   in the mass-spec context:
   * V. Asgeirsson, C. Bauer and S. Grimme, Chem. Sci., 2017, 8, 4879.
     DOI: 10.1039/c7sc00601b
   * J. Koopman and S. Grimme, ACS Omega 2019, 4, 12, 15120-15133.
     DOI: 10.1021/acsomega.9b02011
   
   for metadynamics refer to:
   * S. Grimme, J. Chem. Theory Comput., 2019, 155, 2847-2862
     DOI: 10.1021/acs.jctc.9b00143
   
   for SPH calculations refer to:
   * S. Spicher and S. Grimme, J. Chem. Theory Comput., 2021, 17, 1701-1714
     DOI: 10.1021/acs.jctc.0c01306
   
   with help from (in alphabetical order)
   P. Atkinson, C. Bannwarth, F. Bohle, G. Brandenburg, E. Caldeweyher
   M. Checinski, S. Dohm, S. Ehlert, S. Ehrlich, I. Gerasimov, C. Hölzer
   A. Katbashev, J. Koopman, C. Lavigne, S. Lehtola, F. März, M. Müller,
   F. Musil, H. Neugebauer, J. Pisarek, C. Plett, P. Pracht, F. Pultar,
   J. Seibert, P. Shushkov, S. Spicher, M. Stahn, M. Steiner, T. Strunk,
   J. Stückrath, T. Rose, and J. Unsleber
   
 * started run on 2023/07/13 at 15:03:58.578     

           -------------------------------------------------
          |                Calculation Setup                |
           -------------------------------------------------

          program call               : xtb --verbose --grad -P 8 --chrg 0 --uhf 0 --namespace molecule -- molecule.xyz
          calculation namespace      : molecule
          coordinate file            : molecule.xyz
          xtbhome directory          : /Users/ishaniganguly
          path for xtb               : /Users/ishaniganguly
          xcontrol input file        : molecule.xyz
          omp threads                :                     8

$$$$$$$$$$$$$$$$$$$$$$$$$$$$$$$$$$$$$$$$$$$$$$$$$$$$$$$$$$$$$$$$$$$$$$$$
 CONSTRAINTS & SCANS: DEBUG SECTION
$$$$$$$$$$$$$$$$$$$$$$$$$$$$$$$$$$$$$$$$$$$$$$$$$$$$$$$$$$$$$$$$$$$$$$$$
   ID    Z sym.   atoms
    1    8 O      1, 5
    2    6 C      2-4, 7-9
    3    7 N      6
    4    1 H      10-18
$$$$$$$$$$$$$$$$$$$$$$$$$$$$$$$$$$$$$$$$$$$$$$$$$$$$$$$$$$$$$$$$$$$$$$$$

           -------------------------------------------------
          |                 G F N 2 - x T B                 |
           -------------------------------------------------

        Reference                      10.1021/acs.jctc.8b01176
      * Hamiltonian:
        H0-scaling (s, p, d)           1.850000    2.230000    2.230000
        zeta-weighting                 0.500000
      * Dispersion:
        s8                             2.700000
        a1                             0.520000
        a2                             5.000000
        s9                             5.000000
      * Repulsion:
        kExp                           1.500000    1.000000
        rExp                           1.000000
      * Coulomb:
        alpha                          2.000000
        third order                    shell-resolved
        anisotropic                    true
        a3                             3.000000
        a5                             4.000000
        cn-shift                       1.200000
        cn-exp                         4.000000
        max-rad                        5.000000


          ...................................................
          :                      SETUP                      :
          :.................................................:
          :  # basis functions                  45          :
          :  # atomic orbitals                  45          :
          :  # shells                           27          :
          :  # electrons                        50          :
          :  max. iterations                   250          :
          :  Hamiltonian                  GFN2-xTB          :
          :  restarted?                      false          :
          :  GBSA solvation                  false          :
          :  PC potential                    false          :
          :  electronic temp.          300.0000000     K    :
          :  accuracy                    1.0000000          :
          :  -> integral cutoff          0.2500000E+02      :
          :  -> integral neglect         0.1000000E-07      :
          :  -> SCF convergence          0.1000000E-05 Eh   :
          :  -> wf. convergence          0.1000000E-03 e    :
          :  Broyden damping             0.4000000          :
          ...................................................

 iter      E             dE          RMSdq      gap      omega  full diag
   1    -28.5944509 -0.285945E+02  0.420E+00    3.29       0.0  T
   2    -28.6402477 -0.457967E-01  0.223E+00    2.88       1.0  T
   3    -28.6414556 -0.120792E-02  0.123E+00    3.12       1.0  T
   4    -28.6456734 -0.421784E-02  0.286E-01    2.90       1.0  T
   5    -28.6465642 -0.890778E-03  0.907E-02    2.95       1.0  T
   6    -28.6465900 -0.257653E-04  0.418E-02    2.96       1.0  T
   7    -28.6465946 -0.465776E-05  0.174E-02    2.95       1.4  T
   8    -28.6465960 -0.135338E-05  0.553E-03    2.96       4.3  T
   9    -28.6465962 -0.184848E-06  0.226E-03    2.95      10.4  T
  10    -28.6465962 -0.120904E-07  0.109E-03    2.95      21.7  T
  11    -28.6465962 -0.328698E-08  0.187E-04    2.95     125.9  T
  12    -28.6465962 -0.894467E-10  0.814E-05    2.95     289.7  T

   *** convergence criteria satisfied after 12 iterations ***

         #    Occupation            Energy/Eh            Energy/eV
      -------------------------------------------------------------
         1        2.0000           -0.7182441             -19.5444
       ...           ...                  ...                  ...
        19        2.0000           -0.4903650             -13.3435
        20        2.0000           -0.4700080             -12.7896
        21        2.0000           -0.4556634             -12.3992
        22        2.0000           -0.4448114             -12.1039
        23        2.0000           -0.4247132             -11.5570
        24        2.0000           -0.3977254             -10.8227
        25        2.0000           -0.3685613             -10.0291 (HOMO)
        26                         -0.2599813              -7.0745 (LUMO)
        27                         -0.1930567              -5.2533
        28                         -0.0595300              -1.6199
        29                          0.0067153               0.1827
        30                          0.0197744               0.5381
       ...                                ...                  ...
        45                          0.6842150              18.6184
      -------------------------------------------------------------
                  HL-Gap            0.1085800 Eh            2.9546 eV
             Fermi-level           -0.3142713 Eh           -8.5518 eV

 SCC (total)                   0 d,  0 h,  0 min,  0.060 sec
 SCC setup                      ...        0 min,  0.001 sec (  1.152%)
 Dispersion                     ...        0 min,  0.000 sec (  0.482%)
 classical contributions        ...        0 min,  0.000 sec (  0.091%)
 integral evaluation            ...        0 min,  0.001 sec (  1.072%)
 iterations                     ...        0 min,  0.049 sec ( 81.020%)
 molecular gradient             ...        0 min,  0.001 sec (  2.263%)
 printout                       ...        0 min,  0.008 sec ( 13.891%)

         :::::::::::::::::::::::::::::::::::::::::::::::::::::
         ::                     SUMMARY                     ::
         :::::::::::::::::::::::::::::::::::::::::::::::::::::
         :: total energy             -28.346605342228 Eh    ::
         :: gradient norm              0.108758995354 Eh/a0 ::
         :: HOMO-LUMO gap              2.954612974738 eV    ::
         ::.................................................::
         :: HOMO orbital eigv.       -10.029064734850 eV    ::
         :: LUMO orbital eigv.        -7.074451760112 eV    ::
         ::.................................................::
         :: SCC energy               -28.646596193683 Eh    ::
         :: -> isotropic ES            0.057140079900 Eh    ::
         :: -> anisotropic ES          0.003188893966 Eh    ::
         :: -> anisotropic XC          0.011984936413 Eh    ::
         :: -> dispersion             -0.012730507686 Eh    ::
         :: repulsion energy           0.299947167088 Eh    ::
         :: add. restraining           0.000000000000 Eh    ::
         :: total charge               0.000000000000 e     ::
         ::.................................................::
         :: atomisation energy         5.005721652075 Eh    ::
         :::::::::::::::::::::::::::::::::::::::::::::::::::::

           -------------------------------------------------
          |                Property Printout                |
           -------------------------------------------------

    * Orbital Energies and Occupations

         #    Occupation            Energy/Eh            Energy/eV
      -------------------------------------------------------------
         1        2.0000           -0.7182441             -19.5444
       ...           ...                  ...                  ...
        13        2.0000           -0.5412337             -14.7277
        14        2.0000           -0.5278080             -14.3624
        15        2.0000           -0.5217097             -14.1964
        16        2.0000           -0.5131782             -13.9643
        17        2.0000           -0.5066243             -13.7859
        18        2.0000           -0.4945720             -13.4580
        19        2.0000           -0.4903650             -13.3435
        20        2.0000           -0.4700080             -12.7896
        21        2.0000           -0.4556634             -12.3992
        22        2.0000           -0.4448114             -12.1039
        23        2.0000           -0.4247132             -11.5570
        24        2.0000           -0.3977254             -10.8227
        25        2.0000           -0.3685613             -10.0291 (HOMO)
        26                         -0.2599813              -7.0745 (LUMO)
        27                         -0.1930567              -5.2533
        28                         -0.0595300              -1.6199
        29                          0.0067153               0.1827
        30                          0.0197744               0.5381
        31                          0.0555402               1.5113
        32                          0.0918472               2.4993
        33                          0.1196199               3.2550
        34                          0.1240745               3.3762
        35                          0.1393984               3.7932
        36                          0.1635842               4.4514
       ...                                ...                  ...
        45                          0.6842150              18.6184
      -------------------------------------------------------------
                  HL-Gap            0.1085800 Eh            2.9546 eV
             Fermi-level           -0.3142713 Eh           -8.5518 eV

     #   Z          covCN         q      C6AA      α(0)
     1   8 O        0.856    -0.383    21.344     6.194
     2   6 C        3.104     0.223    23.199     7.892
     3   6 C        4.030     0.012    20.298     6.400
     4   6 C        3.672     0.078    19.514     6.331
     5   8 O        1.652    -0.431    21.469     6.255
     6   7 N        3.007    -0.164    24.539     7.357
     7   6 C        3.755     0.022    20.257     6.418
     8   6 C        4.082     0.023    20.109     6.369
     9   6 C        3.771    -0.099    22.414     6.746
    10   1 H        0.923     0.045     2.379     2.412
    11   1 H        0.924     0.035     2.521     2.483
    12   1 H        0.924     0.068     2.113     2.273
    13   1 H        0.804     0.296     0.734     1.346
    14   1 H        0.924     0.068     2.111     2.272
    15   1 H        0.925     0.033     2.544     2.494
    16   1 H        0.924     0.072     2.062     2.246
    17   1 H        0.924     0.051     2.303     2.373
    18   1 H        0.923     0.052     2.300     2.372

 Mol. C6AA /au·bohr⁶  :       2970.168244
 Mol. C8AA /au·bohr⁸  :      66068.634790
 Mol. α(0) /au        :         80.234242


Wiberg/Mayer (AO) data.
largest (>0.10) Wiberg bond orders for each atom

 ---------------------------------------------------------------------------
     #   Z sym  total        # sym  WBO       # sym  WBO       # sym  WBO
 ---------------------------------------------------------------------------
     1   8 O    2.075 --     2 C    1.746     8 C    0.116
     2   6 C    3.941 --     1 O    1.746     8 C    1.104     3 C    0.940
     3   6 C    3.967 --     4 C    0.983     6 N    0.954    10 H    0.947
                             2 C    0.940
     4   6 C    3.962 --     5 O    1.006     3 C    0.983    11 H    0.968
                            12 H    0.967
     5   8 O    1.959 --     4 C    1.006    13 H    0.899
     6   7 N    3.016 --     7 C    1.061     3 C    0.954     8 C    0.791
     7   6 C    3.935 --     6 N    1.061    15 H    0.966    14 H    0.964
                             8 C    0.815
     8   6 C    3.858 --     2 C    1.104     9 C    0.996     7 C    0.815
                             6 N    0.791     1 O    0.116
     9   6 C    3.984 --     8 C    0.996    17 H    0.978    16 H    0.972
                            18 H    0.970
    10   1 H    0.998 --     3 C    0.947
    11   1 H    0.998 --     4 C    0.968
    12   1 H    0.995 --     4 C    0.967
    13   1 H    0.913 --     5 O    0.899
    14   1 H    0.995 --     7 C    0.964
    15   1 H    0.999 --     7 C    0.966
    16   1 H    0.995 --     9 C    0.972
    17   1 H    0.997 --     9 C    0.978
    18   1 H    0.997 --     9 C    0.970
 ---------------------------------------------------------------------------

Topologies differ in total number of bonds
Writing topology from bond orders to xtbtopo.mol

molecular dipole:
                 x           y           z       tot (Debye)
 q only:        1.342      -0.656      -0.979
   full:        1.609      -0.804      -1.438       5.852
molecular quadrupole (traceless):
                xx          xy          yy          xz          yz          zz
 q only:        8.297      -4.389      -2.977      -6.060      -2.250      -5.320
  q+dip:       10.051      -6.275      -5.126      -8.666      -3.016      -4.925
   full:        9.609      -5.934      -5.276      -8.640      -3.223      -4.333


           -------------------------------------------------
          | TOTAL ENERGY              -28.346605342228 Eh   |
          | GRADIENT NORM               0.108758995354 Eh/α |
          | HOMO-LUMO GAP               2.954612974738 eV   |
           -------------------------------------------------
########################################################################
[WARNING] Runtime exception occurred
-3- restart_readRestart: Dimension missmatch in restart file.
-2- restart_readRestart: Multiplicity missmatch in restart file.
-1- restart_readRestart: Number of electron missmatch in restart file.
########################################################################

------------------------------------------------------------------------
 unit  open   action     filename
   10 false : read       molecule.xyz
   10 false : read       molecule.xyz
   10 false : read       molecule.xyz
   10 false : read       molecule.xtbrestart
   10 false : replaced   molecule.energy
   11 false : replaced   molecule.gradient
   10 false : replaced   molecule.molecule.engrad
   10 false : replaced   molecule.charges
   10 false : replaced   molecule.wbo
   10 false : replaced   molecule.xtbtopo.mol
   10 false : replaced   molecule.xtbrestart

------------------------------------------------------------------------
 * finished run on 2023/07/13 at 15:03:58.651     
------------------------------------------------------------------------
 total:
 * wall-time:     0 d,  0 h,  0 min,  0.072 sec
 *  cpu-time:     0 d,  0 h,  0 min,  0.318 sec
 * ratio c/w:     4.400 speedup
 SCF:
 * wall-time:     0 d,  0 h,  0 min,  0.061 sec
 *  cpu-time:     0 d,  0 h,  0 min,  0.259 sec
 * ratio c/w:     4.278 speedup

